  120
Geometry Step: 74
    C     -0.96139545     -1.00548445      3.15824809      3.99971489
    C      0.49476801     -1.00537033      3.16170280      3.99979950
    C      1.19722877      0.21115669      3.16005931      3.99985724
    C      0.46920003      1.47249658      3.15506350      3.99988553
    C     -0.93587643      1.47261619      3.15207234      4.00011898
    C     -1.66408959      0.21111541      3.15368007      4.00010257
    C     -1.41014567     -2.11158535      2.32539095      4.00031369
    C     -0.22959060     -2.79438782      1.81180146      3.99976666
    C      0.94817333     -2.11152492      2.33146542      4.00029794
    C      2.08839783     -1.95848965      1.52354060      3.99995023
    C      2.38050713      0.36945144      2.32744722      4.00021644
    C      1.20138044      2.41184214      2.31820045      4.00020552
    C      0.49975464      3.31696370      1.50288442      3.99994902
    C     -0.95744405      3.31686556      1.49915232      4.00009239
    C     -1.66338653      2.41178334      2.31085056      4.00005591
    C     -2.84135530      1.72940676      1.79086703      3.99984099
    C     -2.84250971      0.36936856      2.31404254      4.00006103
    C     -3.27455430     -0.69660510      1.50567287      4.00013997
    C     -2.54604312     -1.95859691      1.51142788      3.99989605
    C     -0.22612223     -3.29961357      0.50040832      3.99986276
    C     -1.40305257     -3.14071284     -0.34415028      4.00004863
    C     -2.54214609     -2.48276152      0.15203152      3.99995488
    C     -3.26829720     -1.54458253     -0.69390875      4.00011340
    C     -3.72102741     -0.44072629      0.14258011      3.99992298
    C     -3.71929381      0.87119606     -0.36274731      4.00007365
    C     -3.27177456      1.97571685      0.47588919      3.99986600
    C     -2.54017018      2.91346691     -0.36610055      4.00007303
    C     -1.40419240      3.57216915      0.13605688      3.99992770
    C      2.38216161      1.72952960      1.80443670      3.99979236
    C      0.96053806      2.54135902     -2.52817569      4.00004127
    C      2.09569044      2.38890863     -1.71321989      3.99998619
    C      2.82427414      1.12706246     -1.70732681      3.99998984
    C      2.39197743      0.06208672     -2.51665372      4.00004461
    C      1.21527129      0.22005954     -3.36105847      4.00001069
    C     -0.94453663      1.43733005     -3.37047342      3.99999683
    C     -1.39707512      2.54130074     -2.53431155      4.00005729
    C     -0.21963611      3.22362956     -2.01375789      3.99992206
    C     -0.22307908      3.72998811     -0.70251162      4.00011231
    C      0.95366370      3.57228251      0.14218390      3.99994865
    C      2.09227192      2.91358477     -0.35404689      4.00005468
    C      3.27144127      0.87133381     -0.34449878      4.00004371
    C      3.27063963     -0.44063975      0.16078377      3.99995529
    C      2.82226291     -1.54451829     -0.67800537      4.00010252
    C      2.39068559     -1.29749992     -1.99272789      3.99991820
    C      1.21317580     -1.97974142     -2.51332572      4.00005010
    C      0.48678543     -1.04173664     -3.35900095      4.00000553
    C     -0.91887020     -1.04174563     -3.36266015      4.00000188
    C     -1.64735681      0.22001800     -3.36850092      4.00000452
    C     -2.53647085      2.38880607     -1.72528570      3.99997873
    C     -3.26501781      1.12696383     -1.72320894      3.99997866
    C     -2.82847776      0.06199878     -2.53026360      4.00005743
    C     -2.82989475     -1.29757870     -2.00636679      3.99991533
    C     -1.64967999     -1.97978407     -2.52079516      4.00004132
    C     -0.94890967     -2.88464056     -1.70461418      3.99998844
    C      0.50818231     -2.88462375     -1.70079126      3.99998289
    C      0.95518649     -3.14068875     -0.33796264      4.00004529
    C      2.09169007     -2.48271258      0.16411446      3.99996153
    C      2.81954277      1.97585577      0.49178157      3.99987010
    C      2.81694300     -0.69654769      1.52151140      4.00003783
    C      0.51241292      1.43736225     -3.36669082      3.99999634
    C     -0.78779608     -1.26448371     12.98673110      3.99999615
    C      0.66915034     -1.26445345     12.99051294      3.99999567
    C      1.37197394     -0.04714163     12.98854047      4.00000656
    C      0.64348574      1.21462502     12.98269950      4.00000141
    C     -0.76216839      1.21461637     12.97904066      4.00000508
    C     -1.49065257     -0.04718019     12.98109910      4.00001083
    C     -1.23592048     -2.36848148     12.14821502      4.00004193
    C     -0.05574390     -3.05075200     11.63379795      3.99992285
    C      1.12169438     -2.36842098     12.15435182      4.00005697
    C      2.26108841     -2.21592987     11.34532407      3.99997871
    C      2.55309502      0.11088207     12.15030312      4.00005694
    C      1.37429466      2.15266181     12.14083710      4.00004061
    C      0.67352789      3.05751946     11.32465392      3.99998987
    C     -0.78356693      3.05750302     11.32082844      3.99998228
    C     -1.48855884      2.15262055     12.13336518      4.00005045
    C     -2.66606856      1.47037726     11.61276937      3.99991773
    C     -2.66736130      0.11079095     12.13669352      4.00004502
    C     -3.09965653     -0.95418453     11.32736736      3.99998859
    C     -2.37107466     -2.21602822     11.33326182      3.99998578
    C     -0.05230858     -3.55710935     10.32255121      4.00011127
    C     -1.22904514     -3.39940375      9.47785424      3.99994760
    C     -2.36765373     -2.74070717      9.97408825      4.00005622
    C     -3.09492490     -1.80297724      9.12825699      3.99987020
    C     -3.54682354     -0.69845635      9.96453865      4.00004446
    C     -3.54602191      0.61351946      9.45925695      3.99995477
    C     -3.09764540      1.71739519     10.29804743      4.00010323
    C     -2.36707143      2.65559162      9.45592279      3.99996323
    C     -1.23056980      3.31356656      9.95800540      4.00004283
    C      2.55451068      1.47045869     11.62640665      3.99991551
    C      1.13476336      2.28446267      7.29464829      4.00031265
    C      2.27065868      2.13147747      8.10861398      3.99989664
    C      2.99917206      0.86948297      8.11436814      4.00014104
    C      2.56712645     -0.19649068      7.30599788      4.00006060
    C      1.38870860     -0.03823636      6.46636068      4.00010254
    C     -0.77015434      1.17824678      6.45833693      3.99980068
    C     -1.22355384      2.28440441      7.28857453      4.00029835
    C     -0.04578905      2.96726549      7.80823863      3.99976603
    C     -0.04926553      3.47249238      9.11963142      3.99986372
    C      1.12767080      3.31359183      9.96418799      4.00004972
    C      2.26676463      2.65563910      9.46801058      3.99995335
    C      3.44564528      0.61360350      9.47745962      3.99992239
    C      3.44391148     -0.69831665      9.98278876      4.00007411
    C      2.99639204     -1.80283992      9.14415305      3.99986542
    C      2.56597249     -1.55652931      7.82917454      3.99984128
    C      1.38800445     -2.23890411      7.30918942      4.00005567
    C      0.66049342     -1.29973590      6.46796726      4.00011949
    C     -0.74458410     -1.29961719      6.46497582      3.99988575
    C     -1.47261101     -0.03828049      6.45997993      3.99985522
    C     -2.36378010      2.13136609      8.09649781      3.99995028
    C     -3.09232666      0.86942483      8.09853078      4.00003701
    C     -2.65588959     -0.19657052      7.29259200      4.00021708
    C     -2.65754541     -1.55664973      7.81560303      3.99979214
    C     -1.47676527     -2.23896429      7.30184111      4.00020627
    C     -0.77513566     -3.14408494      8.11715497      3.99994767
    C      0.68205946     -3.14398624      8.12088472      4.00009291
    C      1.12880966     -3.39929112      9.48398596      3.99993023
    C      2.26478880     -2.74058773      9.98613825      4.00007121
    C      2.99291496      1.71746146     10.31394790      4.00011325
    C      2.98963424     -0.95408656     11.34325118      3.99997946
    C      0.68601294      1.17836378      6.46179271      3.99971511
