  131
Geometry Step: 1147
    O     -1.90160609      0.18508327      3.73292960      6.37812229
    O     -4.97980231      1.23418645      3.79211438      6.37888885
    P     -3.47687396     -0.45738468      4.33951138      4.48658898
    O     -4.14897929     -2.01159394      3.70239118      6.37286973
    H     -4.77042980      1.84932718      4.52791047      0.76584287
    C     -3.87645720     -0.22102070      9.03451934      3.96868868
    C     -2.98249657      0.61459978      8.34733178      4.06655821
    H     -2.39002436      1.36000465      8.90622390      0.93995844
    C     -2.83498965      0.52430227      6.96523041      4.03832292
    H     -2.12820827      1.19914567      6.45089633      0.92231406
    C     -3.58041804     -0.41287177      6.23801760      3.99309199
    C     -4.46997481     -1.25779496      6.91382652      4.03035961
    H     -5.07046510     -1.99993146      6.35806453      0.91888439
    C     -4.60736524     -1.16624275      8.29701076      4.06614549
    H     -5.31373598     -1.83910576      8.81471399      0.93983831
    H     -8.16740377      5.68529196     12.34548126      0.96503230
    H     -6.81631717      3.29700453     14.70441890      0.95737453
    C     -8.24584232      4.60734891     12.04044225      4.00489082
    C     -7.59805138      3.89282978     14.17753413      4.00362654
    H     -2.13353811     -2.52988014     15.76809690      0.95890581
    N     -7.45668264      3.79449175     12.81569621      5.01085202
    H     -0.47497771     -4.52979090     12.59318394      0.95500199
    H     -7.50873941      4.95441285     14.53260805      0.96556472
    H     -7.95604406      4.54101203     10.96553339      0.95566108
    C     -6.65596428      2.85634382     12.26450974      3.81750272
    C     -5.90926282      1.94865470     13.06048753      4.24100764
    C     -6.50707309      2.73890742     10.84544030      4.14313877
    C     -5.07858131      0.99278268     12.48825704      3.72833408
    O     -4.40477933      0.12864467     13.38458711      6.18650941
    C     -4.92131662      0.88167319     11.07149389      4.06491463
    C     -5.67938783      1.79944051     10.27951833      4.03309576
    H     -5.99156295      1.99961422     14.16206787      0.92998175
    C     -4.05482493     -0.09948297     10.52335222      3.96688831
    C     -3.36537387     -0.96649210     11.40855432      4.06455814
    C     -3.55796077     -0.85534847     12.82040179      3.72839303
    C     -2.45375852     -1.97787726     10.97162528      4.03261126
    H     -7.07213091      3.42890437     10.19004152      0.93659627
    C     -2.92829722     -1.71313527     13.71435706      4.24157494
    C     -1.82097707     -2.81656325     11.85653103      4.14261004
    C     -2.04818648     -2.73385889     13.26726503      3.81747498
    C     -1.73465346     -3.53044080     15.47396292      4.00281948
    N     -1.44274625     -3.57459457     14.13328222      5.01045463
    C     -0.63040414     -4.59088389     13.69571906      4.00534149
    H     -3.11445158     -1.59229302     14.79679046      0.92976848
    H     -1.12241601     -3.58455628     11.47193754      0.93627239
    H     -0.83011399     -3.73220743     16.10131614      0.96276500
    H      0.38576023     -4.56172838     14.17893456      0.96667640
    H     -9.34219900      4.33946752     12.10303891      0.96962360
    H     -8.59908503      3.51878313     14.54527799      0.97059196
    H     -2.51403615     -4.29177242     15.78246275      0.97217786
    H     -1.05703596     -5.61183572     13.91607354      0.96792164
    H     -5.60186095      1.75353800      9.17909370      0.93411698
    H     -2.24888788     -2.08939526      9.89250517      0.93251886
   Ti     -3.91448019      1.81782561     -2.07963579      3.20407280
   Ti     -1.68398360      3.69667415     -1.66865543      3.27072631
    O     -1.71023174      1.86686727     -1.57681298      6.35396166
    O     -3.31715701      3.55637688     -2.56929251      6.43805849
    O      1.64502555      1.92668472     -1.70338646      6.35309103
    O     -5.73412359      1.79526729     -2.30181948      6.40961968
   Ti     -4.35229731      1.58874680      1.63407425      3.23035064
   Ti     -6.45157727      1.59720290     -0.53156213      3.23739233
   Ti     -1.61949133      3.44289626      1.71276234      3.36122642
    O     -7.96975347      2.69414849     -0.70542590      6.47899256
    O     -1.19931995      1.74264790      1.39305210      6.34535719
    O     -4.21684701      1.76725283     -0.24930201      6.33932216
    O     -3.35798450      3.06180863      2.26568147      6.41842842
    O      1.90581984      1.70033318      2.46548365      6.36945620
    O     -6.15565787      1.81281366      1.34692907      6.41091603
    O     -1.80810186      4.28243065      0.07254925      6.36077135
   Ti     -3.84806822     -1.85267157     -2.29281908      3.20596578
   Ti     -1.40938390      0.00936736     -1.89130991      3.24567162
    O     -1.63662491     -1.88392141     -1.83702761      6.34453382
    O     -3.30219934      0.01426939     -2.58163596      6.39844676
    O      1.76336043     -1.80171144     -1.53875737      6.35520061
    O     -5.67461881     -1.92039418     -2.40661101      6.40323686
   Ti     -3.98719635     -2.07452796      1.46301268      3.14729886
   Ti     -6.29523702     -1.90080015     -0.58190359      3.23990571
   Ti     -1.30657921     -0.13043657      1.56516860      3.09768856
    O     -6.91702481     -0.17752973     -0.53385287      6.33450691
    O     -1.73969977     -1.97976814      1.24703443      6.34833587
    O     -4.04843592     -2.01463633     -0.45495481      6.34466211
    O     -3.55420312     -0.13932680      1.61152797      6.42220828
    O      1.94006834     -2.03204128      1.47780250      6.33000366
    O     -5.82724117     -2.17120840      1.25112592      6.40391459
    O     -0.53393955     -0.13602437     -0.24212224      6.38575234
   Ti     -1.52970502     -3.66796735     -2.18952233      3.27823457
    O     -3.18373902     -3.47300970     -3.04287813      6.43693045
   Ti     -1.57310073     -3.80989994      1.21101664      3.28730754
    O     -7.71409068     -3.12013752     -0.73871850      6.47612269
    O     -3.32762054     -3.86387865      1.79152868      6.42390308
    O     -1.61236805     -4.44402048     -0.52546900      6.36503662
   Ti      1.62619564      3.73054572     -1.51968128      3.29415696
   Ti      6.34883652      1.79017911      0.08996825      3.22009146
   Ti      3.91302015      1.94027030     -1.68549060      3.13951661
    O      3.38273826      3.70900839     -2.15504540      6.44595313
    O      7.80897713      2.97229379      0.04633352      6.47797490
    O      5.74995281      2.00273314     -1.72035583      6.42396764
    O      1.63985453      3.98167496      0.30145384      6.35714315
    O      5.94027721      1.94085349      1.97399104      6.42527774
    O      4.09161535      1.84212668      0.19236295      6.34215315
   Ti      1.66651729      3.49458838      2.07403763      3.21588737
   Ti      4.11520614      1.87738883      2.05445894      3.10902514
    O      3.50638077      3.60714573      2.53054385      6.46534992
   Ti      1.33890465      0.04994291     -1.48757293      3.06922129
   Ti      6.45326014     -1.71110580     -0.18337292      3.23024122
   Ti      3.99415738     -1.65580952     -1.93838350      3.18663463
    O      3.43955403      0.15251525     -2.28756122      6.42259410
    O      8.00625985     -2.74680232     -0.40220489      6.47663951
    O      5.83594080     -1.70093482     -2.00035984      6.42152967
    O      1.95679589      0.27569125      0.24708893      6.38818883
    O      6.91451161      0.05421027      0.02108152      6.33599946
    O      4.20460120     -1.80513982     -0.08588557      6.34053805
   Ti      1.89969646     -0.17037080      1.97875427      3.29767633
   Ti      4.18296167     -2.06972774      1.77055135      3.19196145
    O      3.78356489     -0.29927444      2.49084821      6.43942822
   Ti      1.79675039     -3.57818752     -1.97171452      3.27765858
    O      3.44630925     -3.27339535     -2.77401491      6.43367872
    O      1.94301822     -4.41070505     -0.32967798      6.37348886
    O      6.01468184     -2.18491771      1.62550717      6.41713031
   Ti      1.81439049     -3.84418371      1.42699897      3.28536542
    O      3.52047226     -3.79867605      2.22784597      6.44844289
    O     -0.00408753      4.24013785     -2.28370549      6.41065506
    O      0.19466638     -3.97134583     -2.84325552      6.40652953
    O      0.07898185      0.05492944     -2.93641145      6.45226118
    O      0.07713440     -4.25086656      1.99420168      6.41489375
    O     -0.05222766      3.99943562      2.62669217      6.42845333
    O      0.18534151     -0.46038215      2.60551736      6.39698957
    H      8.57367586      3.46573057     -0.32124773      0.74875066
    H      8.76069215     -3.17532866     -0.86112051      0.74978448
    H     -8.75713595      3.20971141     -0.42775322      0.75234971
    H     -8.49595173     -3.66318408     -0.50373273      0.75018235